version 2
run Large-0-20150814-11:00:40-22831
attr configname Large
attr datetime 20150814-11:00:40
attr experiment Large
attr inifile omnetpp.ini
attr iterationvars ""
attr iterationvars2 $repetition=0
attr measurement ""
attr network HTTPNet
attr processid 22831
attr repetition 0
attr replication #0
attr resultdir results
attr runnumber 0
attr seedset 0

vector 7  HTTPNet.Students[6]  endToEndDelay:vector  ETV
attr interpolationmode  none
attr title  "end-to-end delay of arrived packets, vector"
attr unit  s
vector 9  HTTPNet.Students[8]  endToEndDelay:vector  ETV
attr interpolationmode  none
attr title  "end-to-end delay of arrived packets, vector"
attr unit  s
vector 3  HTTPNet.Students[2]  endToEndDelay:vector  ETV
attr interpolationmode  none
attr title  "end-to-end delay of arrived packets, vector"
attr unit  s
vector 2  HTTPNet.Students[1]  endToEndDelay:vector  ETV
attr interpolationmode  none
attr title  "end-to-end delay of arrived packets, vector"
attr unit  s
vector 1  HTTPNet.Students[0]  endToEndDelay:vector  ETV
attr interpolationmode  none
attr title  "end-to-end delay of arrived packets, vector"
attr unit  s
vector 4  HTTPNet.Students[3]  endToEndDelay:vector  ETV
attr interpolationmode  none
attr title  "end-to-end delay of arrived packets, vector"
attr unit  s
vector 5  HTTPNet.Students[4]  endToEndDelay:vector  ETV
attr interpolationmode  none
attr title  "end-to-end delay of arrived packets, vector"
attr unit  s
vector 6  HTTPNet.Students[5]  endToEndDelay:vector  ETV
attr interpolationmode  none
attr title  "end-to-end delay of arrived packets, vector"
attr unit  s
vector 8  HTTPNet.Students[7]  endToEndDelay:vector  ETV
attr interpolationmode  none
attr title  "end-to-end delay of arrived packets, vector"
attr unit  s
vector 10  HTTPNet.Students[9]  endToEndDelay:vector  ETV
attr interpolationmode  none
attr title  "end-to-end delay of arrived packets, vector"
attr unit  s
vector 0  HTTPNet.Presenter  endToEndDelay:vector  ETV
attr interpolationmode  none
attr title  "end-to-end delay of arrived packets, vector"
attr unit  s
0	32	1.095874504565	0.3
0	300	1.581002668286	0.3
0	636	2.542383607351	0.3
0	710	2.742825802436	0.3
0	761	2.842825802436	0.333907989307
0	944	3.527164293237	0.3
0	1427	5.11872041603	0.3
0	1658	5.401792851877	0.3
0	2131	8.54679040458	0.3
0	4043	11.870352530982	0.3
0	5271	13.709150329112	0.3
0	5285	13.99395474864	0.3
0	5531	14.429427783216	0.3
0	5533	14.529427783216	0.31453197624
0	6044	15.930123861346	0.3
0	6164	17.222448760643	0.3
1	20	0.995874504565	0.2
1	277	1.481002668286	0.2
1	588	2.442383607351	0.2
1	639	2.642825802436	0.2
1	699	2.708917813129	0.2
1	928	3.427164293237	0.2
1	1363	5.01872041603	0.2
1	1443	5.301792851877	0.2
1	2058	8.44679040458	0.2
1	3822	11.770352530982	0.2
1	5085	13.609150329112	0.2
1	5273	13.89395474864	0.2
1	5508	14.329427783216	0.2
1	5520	14.414895806976	0.2
1	6032	15.830123861346	0.2
1	6152	17.122448760643	0.2
2	17	0.826572730005	0
2	21	0.995874504565	0.2
2	83	1.180801709972	0
2	212	1.347840582725	0
2	234	1.356311438711	0
2	260	1.384834697206	0
2	275	1.46550963959	0
2	278	1.481002668286	0.2
2	298	1.557238950995	0
2	400	1.817588024354	0
2	404	1.883896137071	0
2	475	1.961420495764	0
2	515	2.141350407087	0
2	573	2.154971232348	0
2	589	2.442383607351	0.2
2	634	2.523396013478	0
2	640	2.642825802436	0.2
2	697	2.657529629464	0
2	700	2.708917813129	0.2
2	741	2.768335598487	0
2	744	2.789406318112	0
2	759	2.818446081304	0
2	799	2.927318003826	0
2	865	3.211692351818	0
2	926	3.383275342669	0
2	929	3.427164293237	0.2
2	942	3.480649716397	0
2	1225	3.674232632546	0
2	1237	3.826244610676	0
2	1276	4.667755314564	0
2	1285	4.808565412338	0
2	1348	4.874456263527	0
2	1360	4.910749718198	0
2	1364	5.01872041603	0.2
2	1405	5.095532578328	0
2	1413	5.101277139018	0
2	1440	5.198686571124	0
2	1444	5.301792851877	0.2
2	1656	5.379373972777	0
2	1686	5.596645202917	0
2	1790	6.115445148932	0
2	1829	6.623715576572	0
2	1841	7.01474014061	0
2	1853	7.015559320548	0
2	1881	7.31397487712	0
2	1932	7.454432109742	0
2	2015	8.033112038029	0
2	2029	8.180657807824	0
2	2043	8.245185294287	0
2	2059	8.44679040458	0.2
2	2129	8.452248707672	0
2	2182	8.549930174536	0
2	2237	8.762217856065	0
2	2240	8.835915008516	0
2	2267	9.280119827754	0
2	2284	9.311878775537	0
2	2348	9.3378062574	0
2	2355	9.360937305006	0
2	2389	9.708575618412	0
2	2413	9.751147041579	0
2	2482	9.778119862417	0
2	2641	9.779196138632	0
2	2698	9.947022478095	0
2	3021	10.185927194965	0
2	3095	10.242569701072	0
2	3114	10.273743918534	0
2	3293	10.43187815262	0
2	3335	10.480018993019	0
2	3449	10.557953859419	0
2	3484	11.167481268566	0
2	3493	11.212943568765	0
2	3513	11.422779067607	0
2	3553	11.434850667488	0
2	3754	11.476203257697	0
2	3796	11.564268870577	0
2	3819	11.587443141149	0
2	3823	11.770352530982	0.2
2	4041	11.853332842694	0
2	4202	12.240705829491	0
2	4493	12.299458485721	0
2	4549	12.488940137549	0
2	4558	12.692791664327	0
2	4743	12.718197071763	0
2	4766	12.738614628412	0
2	4991	12.860551501029	0
2	5070	12.943613022599	0
2	5086	13.609150329112	0.2
2	5257	13.676087953134	0
2	5274	13.89395474864	0.2
2	5298	13.997513645938	0
2	5337	14.031213282138	0
2	5363	14.039928932403	0
2	5397	14.113878509242	0
2	5505	14.296674349977	0
2	5509	14.329427783216	0.2
2	5521	14.414895806976	0.2
2	5553	14.570179144425	0
2	5604	14.618282666379	0
2	5646	14.72645211231	0
2	5704	14.737971246337	0
2	5744	14.757962679078	0
2	5770	14.783527917035	0
2	5788	14.898634381528	0
2	5799	14.983968602829	0
2	5807	15.322221556706	0
2	5897	15.447242471059	0
2	5921	15.521173179869	0
2	5945	15.628657466724	0
2	6021	15.68233267768	0
2	6029	15.722307924228	0
2	6033	15.830123861346	0.2
2	6074	15.989736414368	0
2	6107	16.394534815128	0
2	6137	16.80693950128	0
2	6153	17.122448760643	0.2
2	6246	17.476887072827	0
2	6348	17.49533943457	0
2	6355	17.609963889439	0
2	6471	17.813235946674	0
2	6494	18.164950516515	0
2	6502	18.213666830242	0
2	6540	18.487300299315	0
2	6580	18.650943461677	0
2	6643	19.110987752355	0
2	6650	19.149216646618	0
2	6658	19.223124625917	0
2	6693	19.471666252658	0
3	16	0.826572730005	0
3	22	0.995874504565	0.2
3	39	1.180801709972	0
3	44	1.180801709972	0
3	48	1.180801709972	0
3	54	1.180801709972	0
3	57	1.180801709972	0
3	65	1.180801709972	0
3	67	1.180801709972	0
3	70	1.180801709972	0
3	82	1.180801709972	0
3	99	1.347840582725	0
3	108	1.347840582725	0
3	110	1.347840582725	0
3	113	1.347840582725	0
3	121	1.347840582725	0
3	140	1.347840582725	0
3	151	1.347840582725	0
3	156	1.347840582725	0
3	160	1.347840582725	0
3	165	1.347840582725	0
3	171	1.347840582725	0
3	176	1.347840582725	0
3	207	1.347840582725	0
3	211	1.347840582725	0
3	215	1.356311438711	0
3	220	1.356311438711	0
3	222	1.356311438711	0
3	225	1.356311438711	0
3	233	1.356311438711	0
3	235	1.356311438711	0
3	239	1.384834697206	0
3	242	1.384834697206	0
3	248	1.384834697206	0
3	259	1.384834697206	0
3	261	1.384834697206	0
3	266	1.46550963959	0
3	274	1.46550963959	0
3	279	1.481002668286	0.2
3	297	1.557238950995	0
3	303	1.817588024354	0
3	311	1.817588024354	0
3	315	1.817588024354	0
3	317	1.817588024354	0
3	332	1.817588024354	0
3	334	1.817588024354	0
3	343	1.817588024354	0
3	359	1.817588024354	0
3	381	1.817588024354	0
3	384	1.817588024354	0
3	387	1.817588024354	0
3	394	1.817588024354	0
3	396	1.817588024354	0
3	399	1.817588024354	0
3	403	1.883896137071	0
3	417	1.961420495764	0
3	447	1.961420495764	0
3	452	1.961420495764	0
3	454	1.961420495764	0
3	460	1.961420495764	0
3	462	1.961420495764	0
3	465	1.961420495764	0
3	469	1.961420495764	0
3	474	1.961420495764	0
3	481	2.141350407087	0
3	483	2.141350407087	0
3	489	2.141350407087	0
3	492	2.141350407087	0
3	497	2.141350407087	0
3	510	2.141350407087	0
3	514	2.141350407087	0
3	551	2.154971232348	0
3	554	2.154971232348	0
3	568	2.154971232348	0
3	570	2.154971232348	0
3	572	2.154971232348	0
3	590	2.442383607351	0.2
3	625	2.523396013478	0
3	633	2.523396013478	0
3	641	2.642825802436	0.2
3	653	2.657529629464	0
3	678	2.657529629464	0
3	681	2.657529629464	0
3	683	2.657529629464	0
3	688	2.657529629464	0
3	696	2.657529629464	0
3	701	2.708917813129	0.2
3	714	2.768335598487	0
3	733	2.768335598487	0
3	740	2.768335598487	0
3	752	2.818446081304	0
3	758	2.818446081304	0
3	770	2.927318003826	0
3	784	2.927318003826	0
3	795	2.927318003826	0
3	798	2.927318003826	0
3	808	3.211692351818	0
3	812	3.211692351818	0
3	859	3.211692351818	0
3	864	3.211692351818	0
3	896	3.383275342669	0
3	914	3.383275342669	0
3	916	3.383275342669	0
3	918	3.383275342669	0
3	922	3.383275342669	0
3	925	3.383275342669	0
3	930	3.427164293237	0.2
3	941	3.480649716397	0
3	952	3.674232632546	0
3	979	3.674232632546	0
3	986	3.674232632546	0
3	1002	3.674232632546	0
3	1012	3.674232632546	0
3	1026	3.674232632546	0
3	1029	3.674232632546	0
3	1034	3.674232632546	0
3	1044	3.674232632546	0
3	1048	3.674232632546	0
3	1054	3.674232632546	0
3	1066	3.674232632546	0
3	1074	3.674232632546	0
3	1079	3.674232632546	0
3	1096	3.674232632546	0
3	1103	3.674232632546	0
3	1111	3.674232632546	0
3	1120	3.674232632546	0
3	1124	3.674232632546	0
3	1131	3.674232632546	0
3	1136	3.674232632546	0
3	1139	3.674232632546	0
3	1144	3.674232632546	0
3	1151	3.674232632546	0
3	1167	3.674232632546	0
3	1200	3.674232632546	0
3	1213	3.674232632546	0
3	1224	3.674232632546	0
3	1236	3.826244610676	0
3	1238	3.826244610676	0
3	1240	4.667755314564	0
3	1244	4.667755314564	0
3	1265	4.667755314564	0
3	1267	4.667755314564	0
3	1275	4.667755314564	0
3	1282	4.808565412338	0
3	1284	4.808565412338	0
3	1300	4.874456263527	0
3	1308	4.874456263527	0
3	1321	4.874456263527	0
3	1339	4.874456263527	0
3	1347	4.874456263527	0
3	1357	4.910749718198	0
3	1359	4.910749718198	0
3	1365	5.01872041603	0.2
3	1390	5.095532578328	0
3	1394	5.095532578328	0
3	1404	5.095532578328	0
3	1412	5.101277139018	0
3	1432	5.198686571124	0
3	1434	5.198686571124	0
3	1439	5.198686571124	0
3	1441	5.198686571124	0
3	1445	5.301792851877	0.2
3	1469	5.379373972777	0
3	1473	5.379373972777	0
3	1480	5.379373972777	0
3	1494	5.379373972777	0
3	1503	5.379373972777	0
3	1521	5.379373972777	0
3	1537	5.379373972777	0
3	1540	5.379373972777	0
3	1546	5.379373972777	0
3	1550	5.379373972777	0
3	1581	5.379373972777	0
3	1584	5.379373972777	0
3	1605	5.379373972777	0
3	1615	5.379373972777	0
3	1617	5.379373972777	0
3	1619	5.379373972777	0
3	1630	5.379373972777	0
3	1648	5.379373972777	0
3	1650	5.379373972777	0
3	1652	5.379373972777	0
3	1655	5.379373972777	0
3	1662	5.596645202917	0
3	1667	5.596645202917	0
3	1680	5.596645202917	0
3	1685	5.596645202917	0
3	1701	6.115445148932	0
3	1704	6.115445148932	0
3	1731	6.115445148932	0
3	1735	6.115445148932	0
3	1738	6.115445148932	0
3	1744	6.115445148932	0
3	1751	6.115445148932	0
3	1757	6.115445148932	0
3	1763	6.115445148932	0
3	1767	6.115445148932	0
3	1789	6.115445148932	0
3	1793	6.623715576572	0
3	1798	6.623715576572	0
3	1808	6.623715576572	0
3	1815	6.623715576572	0
3	1828	6.623715576572	0
3	1840	7.01474014061	0
3	1847	7.015559320548	0
3	1852	7.015559320548	0
3	1869	7.31397487712	0
3	1873	7.31397487712	0
3	1880	7.31397487712	0
3	1887	7.454432109742	0
3	1907	7.454432109742	0
3	1919	7.454432109742	0
3	1929	7.454432109742	0
3	1931	7.454432109742	0
3	1954	8.033112038029	0
3	1959	8.033112038029	0
3	1986	8.033112038029	0
3	1988	8.033112038029	0
3	1993	8.033112038029	0
3	2004	8.033112038029	0
3	2014	8.033112038029	0
3	2022	8.180657807824	0
3	2028	8.180657807824	0
3	2033	8.245185294287	0
3	2039	8.245185294287	0
3	2042	8.245185294287	0
3	2060	8.44679040458	0.2
3	2086	8.452248707672	0
3	2093	8.452248707672	0
3	2100	8.452248707672	0
3	2106	8.452248707672	0
3	2114	8.452248707672	0
3	2122	8.452248707672	0
3	2128	8.452248707672	0
3	2133	8.549930174536	0
3	2135	8.549930174536	0
3	2138	8.549930174536	0
3	2141	8.549930174536	0
3	2146	8.549930174536	0
3	2158	8.549930174536	0
3	2170	8.549930174536	0
3	2179	8.549930174536	0
3	2181	8.549930174536	0
3	2185	8.762217856065	0
3	2194	8.762217856065	0
3	2205	8.762217856065	0
3	2236	8.762217856065	0
3	2241	8.835915008516	0
3	2248	9.280119827754	0
3	2257	9.280119827754	0
3	2263	9.280119827754	0
3	2266	9.280119827754	0
3	2271	9.311878775537	0
3	2277	9.311878775537	0
3	2279	9.311878775537	0
3	2283	9.311878775537	0
3	2291	9.3378062574	0
3	2293	9.3378062574	0
3	2299	9.3378062574	0
3	2303	9.3378062574	0
3	2310	9.3378062574	0
3	2322	9.3378062574	0
3	2345	9.3378062574	0
3	2347	9.3378062574	0
3	2354	9.360937305006	0
3	2361	9.708575618412	0
3	2388	9.708575618412	0
3	2392	9.751147041579	0
3	2410	9.751147041579	0
3	2412	9.751147041579	0
3	2424	9.778119862417	0
3	2429	9.778119862417	0
3	2441	9.778119862417	0
3	2460	9.778119862417	0
3	2464	9.778119862417	0
3	2481	9.778119862417	0
3	2488	9.779196138632	0
3	2508	9.779196138632	0
3	2510	9.779196138632	0
3	2522	9.779196138632	0
3	2528	9.779196138632	0
3	2531	9.779196138632	0
3	2543	9.779196138632	0
3	2553	9.779196138632	0
3	2570	9.779196138632	0
3	2572	9.779196138632	0
3	2582	9.779196138632	0
3	2588	9.779196138632	0
3	2592	9.779196138632	0
3	2594	9.779196138632	0
3	2601	9.779196138632	0
3	2604	9.779196138632	0
3	2612	9.779196138632	0
3	2640	9.779196138632	0
3	2642	9.779196138632	0
3	2649	9.947022478095	0
3	2657	9.947022478095	0
3	2666	9.947022478095	0
3	2669	9.947022478095	0
3	2679	9.947022478095	0
3	2681	9.947022478095	0
3	2688	9.947022478095	0
3	2691	9.947022478095	0
3	2697	9.947022478095	0
3	2703	10.185927194965	0
3	2725	10.185927194965	0
3	2730	10.185927194965	0
3	2735	10.185927194965	0
3	2739	10.185927194965	0
3	2743	10.185927194965	0
3	2762	10.185927194965	0
3	2784	10.185927194965	0
3	2788	10.185927194965	0
3	2792	10.185927194965	0
3	2798	10.185927194965	0
3	2802	10.185927194965	0
3	2816	10.185927194965	0
3	2839	10.185927194965	0
3	2843	10.185927194965	0
3	2863	10.185927194965	0
3	2867	10.185927194965	0
3	2879	10.185927194965	0
3	2886	10.185927194965	0
3	2906	10.185927194965	0
3	2919	10.185927194965	0
3	2926	10.185927194965	0
3	2928	10.185927194965	0
3	2933	10.185927194965	0
3	2976	10.185927194965	0
3	2978	10.185927194965	0
3	2981	10.185927194965	0
3	2983	10.185927194965	0
3	2986	10.185927194965	0
3	2992	10.185927194965	0
3	3001	10.185927194965	0
3	3003	10.185927194965	0
3	3014	10.185927194965	0
3	3020	10.185927194965	0
3	3035	10.242569701072	0
3	3041	10.242569701072	0
3	3050	10.242569701072	0
3	3062	10.242569701072	0
3	3083	10.242569701072	0
3	3094	10.242569701072	0
3	3096	10.242569701072	0
3	3113	10.273743918534	0
3	3117	10.43187815262	0
3	3132	10.43187815262	0
3	3147	10.43187815262	0
3	3160	10.43187815262	0
3	3169	10.43187815262	0
3	3171	10.43187815262	0
3	3190	10.43187815262	0
3	3193	10.43187815262	0
3	3199	10.43187815262	0
3	3205	10.43187815262	0
3	3213	10.43187815262	0
3	3222	10.43187815262	0
3	3227	10.43187815262	0
3	3236	10.43187815262	0
3	3246	10.43187815262	0
3	3252	10.43187815262	0
3	3258	10.43187815262	0
3	3269	10.43187815262	0
3	3274	10.43187815262	0
3	3279	10.43187815262	0
3	3282	10.43187815262	0
3	3292	10.43187815262	0
3	3311	10.480018993019	0
3	3318	10.480018993019	0
3	3328	10.480018993019	0
3	3334	10.480018993019	0
3	3345	10.557953859419	0
3	3350	10.557953859419	0
3	3379	10.557953859419	0
3	3387	10.557953859419	0
3	3391	10.557953859419	0
3	3393	10.557953859419	0
3	3413	10.557953859419	0
3	3417	10.557953859419	0
3	3422	10.557953859419	0
3	3431	10.557953859419	0
3	3442	10.557953859419	0
3	3448	10.557953859419	0
3	3452	11.167481268566	0
3	3466	11.167481268566	0
3	3470	11.167481268566	0
3	3472	11.167481268566	0
3	3483	11.167481268566	0
3	3492	11.212943568765	0
3	3503	11.422779067607	0
3	3510	11.422779067607	0
3	3512	11.422779067607	0
3	3520	11.434850667488	0
3	3523	11.434850667488	0
3	3552	11.434850667488	0
3	3568	11.476203257697	0
3	3582	11.476203257697	0
3	3585	11.476203257697	0
3	3594	11.476203257697	0
3	3596	11.476203257697	0
3	3602	11.476203257697	0
3	3605	11.476203257697	0
3	3615	11.476203257697	0
3	3630	11.476203257697	0
3	3635	11.476203257697	0
3	3641	11.476203257697	0
3	3644	11.476203257697	0
3	3666	11.476203257697	0
3	3670	11.476203257697	0
3	3701	11.476203257697	0
3	3706	11.476203257697	0
3	3709	11.476203257697	0
3	3732	11.476203257697	0
3	3741	11.476203257697	0
3	3753	11.476203257697	0
3	3757	11.564268870577	0
3	3759	11.564268870577	0
3	3762	11.564268870577	0
3	3778	11.564268870577	0
3	3795	11.564268870577	0
3	3818	11.587443141149	0
3	3824	11.770352530982	0.2
3	3835	11.853332842694	0
3	3864	11.853332842694	0
3	3883	11.853332842694	0
3	3885	11.853332842694	0
3	3897	11.853332842694	0
3	3901	11.853332842694	0
3	3907	11.853332842694	0
3	3912	11.853332842694	0
3	3917	11.853332842694	0
3	3922	11.853332842694	0
3	3933	11.853332842694	0
3	3935	11.853332842694	0
3	3968	11.853332842694	0
3	3978	11.853332842694	0
3	3980	11.853332842694	0
3	3982	11.853332842694	0
3	3984	11.853332842694	0
3	3990	11.853332842694	0
3	3997	11.853332842694	0
3	4001	11.853332842694	0
3	4012	11.853332842694	0
3	4016	11.853332842694	0
3	4023	11.853332842694	0
3	4040	11.853332842694	0
3	4051	12.240705829491	0
3	4055	12.240705829491	0
3	4059	12.240705829491	0
3	4067	12.240705829491	0
3	4084	12.240705829491	0
3	4087	12.240705829491	0
3	4091	12.240705829491	0
3	4093	12.240705829491	0
3	4098	12.240705829491	0
3	4104	12.240705829491	0
3	4110	12.240705829491	0
3	4113	12.240705829491	0
3	4121	12.240705829491	0
3	4124	12.240705829491	0
3	4132	12.240705829491	0
3	4134	12.240705829491	0
3	4136	12.240705829491	0
3	4151	12.240705829491	0
3	4156	12.240705829491	0
3	4189	12.240705829491	0
3	4197	12.240705829491	0
3	4201	12.240705829491	0
3	4203	12.240705829491	0
3	4213	12.299458485721	0
3	4218	12.299458485721	0
3	4221	12.299458485721	0
3	4229	12.299458485721	0
3	4236	12.299458485721	0
3	4250	12.299458485721	0
3	4265	12.299458485721	0
3	4267	12.299458485721	0
3	4271	12.299458485721	0
3	4288	12.299458485721	0
3	4298	12.299458485721	0
3	4304	12.299458485721	0
3	4307	12.299458485721	0
3	4311	12.299458485721	0
3	4321	12.299458485721	0
3	4324	12.299458485721	0
3	4331	12.299458485721	0
3	4345	12.299458485721	0
3	4351	12.299458485721	0
3	4358	12.299458485721	0
3	4361	12.299458485721	0
3	4382	12.299458485721	0
3	4390	12.299458485721	0
3	4398	12.299458485721	0
3	4412	12.299458485721	0
3	4415	12.299458485721	0
3	4417	12.299458485721	0
3	4421	12.299458485721	0
3	4425	12.299458485721	0
3	4428	12.299458485721	0
3	4448	12.299458485721	0
3	4459	12.299458485721	0
3	4463	12.299458485721	0
3	4469	12.299458485721	0
3	4471	12.299458485721	0
3	4486	12.299458485721	0
3	4492	12.299458485721	0
3	4494	12.299458485721	0
3	4503	12.488940137549	0
3	4507	12.488940137549	0
3	4533	12.488940137549	0
3	4540	12.488940137549	0
3	4548	12.488940137549	0
3	4557	12.692791664327	0
3	4566	12.718197071763	0
3	4582	12.718197071763	0
3	4585	12.718197071763	0
3	4601	12.718197071763	0
3	4623	12.718197071763	0
3	4631	12.718197071763	0
3	4633	12.718197071763	0
3	4641	12.718197071763	0
3	4652	12.718197071763	0
3	4677	12.718197071763	0
3	4679	12.718197071763	0
3	4681	12.718197071763	0
3	4685	12.718197071763	0
3	4695	12.718197071763	0
3	4708	12.718197071763	0
3	4719	12.718197071763	0
3	4724	12.718197071763	0
3	4727	12.718197071763	0
3	4731	12.718197071763	0
3	4737	12.718197071763	0
3	4740	12.718197071763	0
3	4742	12.718197071763	0
3	4751	12.738614628412	0
3	4765	12.738614628412	0
3	4776	12.860551501029	0
3	4780	12.860551501029	0
3	4790	12.860551501029	0
3	4800	12.860551501029	0
3	4803	12.860551501029	0
3	4805	12.860551501029	0
3	4807	12.860551501029	0
3	4817	12.860551501029	0
3	4823	12.860551501029	0
3	4826	12.860551501029	0
3	4834	12.860551501029	0
3	4841	12.860551501029	0
3	4869	12.860551501029	0
3	4875	12.860551501029	0
3	4891	12.860551501029	0
3	4896	12.860551501029	0
3	4905	12.860551501029	0
3	4921	12.860551501029	0
3	4938	12.860551501029	0
3	4948	12.860551501029	0
3	4954	12.860551501029	0
3	4958	12.860551501029	0
3	4966	12.860551501029	0
3	4979	12.860551501029	0
3	4986	12.860551501029	0
3	4990	12.860551501029	0
3	5023	12.943613022599	0
3	5029	12.943613022599	0
3	5034	12.943613022599	0
3	5036	12.943613022599	0
3	5040	12.943613022599	0
3	5052	12.943613022599	0
3	5063	12.943613022599	0
3	5069	12.943613022599	0
3	5087	13.609150329112	0.2
3	5098	13.676087953134	0
3	5112	13.676087953134	0
3	5121	13.676087953134	0
3	5127	13.676087953134	0
3	5139	13.676087953134	0
3	5167	13.676087953134	0
3	5180	13.676087953134	0
3	5185	13.676087953134	0
3	5188	13.676087953134	0
3	5217	13.676087953134	0
3	5229	13.676087953134	0
3	5231	13.676087953134	0
3	5233	13.676087953134	0
3	5237	13.676087953134	0
3	5240	13.676087953134	0
3	5248	13.676087953134	0
3	5254	13.676087953134	0
3	5256	13.676087953134	0
3	5275	13.89395474864	0.2
3	5291	13.997513645938	0
3	5293	13.997513645938	0
3	5297	13.997513645938	0
3	5303	14.031213282138	0
3	5306	14.031213282138	0
3	5332	14.031213282138	0
3	5336	14.031213282138	0
3	5342	14.039928932403	0
3	5346	14.039928932403	0
3	5351	14.039928932403	0
3	5362	14.039928932403	0
3	5368	14.113878509242	0
3	5379	14.113878509242	0
3	5384	14.113878509242	0
3	5387	14.113878509242	0
3	5391	14.113878509242	0
3	5396	14.113878509242	0
3	5442	14.296674349977	0
3	5453	14.296674349977	0
3	5456	14.296674349977	0
3	5467	14.296674349977	0
3	5475	14.296674349977	0
3	5479	14.296674349977	0
3	5484	14.296674349977	0
3	5487	14.296674349977	0
3	5497	14.296674349977	0
3	5502	14.296674349977	0
3	5504	14.296674349977	0
3	5510	14.329427783216	0.2
3	5522	14.414895806976	0.2
3	5535	14.570179144425	0
3	5543	14.570179144425	0
3	5548	14.570179144425	0
3	5550	14.570179144425	0
3	5552	14.570179144425	0
3	5561	14.618282666379	0
3	5572	14.618282666379	0
3	5575	14.618282666379	0
3	5585	14.618282666379	0
3	5593	14.618282666379	0
3	5596	14.618282666379	0
3	5600	14.618282666379	0
3	5603	14.618282666379	0
3	5609	14.72645211231	0
3	5632	14.72645211231	0
3	5640	14.72645211231	0
3	5645	14.72645211231	0
3	5658	14.737971246337	0
3	5669	14.737971246337	0
3	5683	14.737971246337	0
3	5694	14.737971246337	0
3	5701	14.737971246337	0
3	5703	14.737971246337	0
3	5714	14.757962679078	0
3	5727	14.757962679078	0
3	5735	14.757962679078	0
3	5743	14.757962679078	0
3	5751	14.783527917035	0
3	5761	14.783527917035	0
3	5769	14.783527917035	0
3	5784	14.898634381528	0
3	5787	14.898634381528	0
3	5789	14.898634381528	0
3	5792	14.983968602829	0
3	5798	14.983968602829	0
3	5806	15.322221556706	0
3	5808	15.322221556706	0
3	5827	15.447242471059	0
3	5831	15.447242471059	0
3	5841	15.447242471059	0
3	5849	15.447242471059	0
3	5851	15.447242471059	0
3	5854	15.447242471059	0
3	5863	15.447242471059	0
3	5879	15.447242471059	0
3	5888	15.447242471059	0
3	5894	15.447242471059	0
3	5896	15.447242471059	0
3	5904	15.521173179869	0
3	5910	15.521173179869	0
3	5920	15.521173179869	0
3	5922	15.521173179869	0
3	5925	15.628657466724	0
3	5932	15.628657466724	0
3	5937	15.628657466724	0
3	5942	15.628657466724	0
3	5944	15.628657466724	0
3	5978	15.68233267768	0
3	5985	15.68233267768	0
3	5992	15.68233267768	0
3	5997	15.68233267768	0
3	6013	15.68233267768	0
3	6018	15.68233267768	0
3	6020	15.68233267768	0
3	6028	15.722307924228	0
3	6030	15.722307924228	0
3	6034	15.830123861346	0.2
3	6065	15.989736414368	0
3	6073	15.989736414368	0
3	6075	15.989736414368	0
3	6079	16.394534815128	0
3	6081	16.394534815128	0
3	6088	16.394534815128	0
3	6095	16.394534815128	0
3	6106	16.394534815128	0
3	6116	16.80693950128	0
3	6118	16.80693950128	0
3	6124	16.80693950128	0
3	6136	16.80693950128	0
3	6154	17.122448760643	0.2
3	6167	17.476887072827	0
3	6170	17.476887072827	0
3	6177	17.476887072827	0
3	6204	17.476887072827	0
3	6211	17.476887072827	0
3	6214	17.476887072827	0
3	6221	17.476887072827	0
3	6229	17.476887072827	0
3	6236	17.476887072827	0
3	6242	17.476887072827	0
3	6245	17.476887072827	0
3	6251	17.49533943457	0
3	6267	17.49533943457	0
3	6275	17.49533943457	0
3	6291	17.49533943457	0
3	6297	17.49533943457	0
3	6305	17.49533943457	0
3	6314	17.49533943457	0
3	6327	17.49533943457	0
3	6333	17.49533943457	0
3	6337	17.49533943457	0
3	6339	17.49533943457	0
3	6347	17.49533943457	0
3	6354	17.609963889439	0
3	6359	17.813235946674	0
3	6373	17.813235946674	0
3	6390	17.813235946674	0
3	6392	17.813235946674	0
3	6397	17.813235946674	0
3	6403	17.813235946674	0
3	6406	17.813235946674	0
3	6408	17.813235946674	0
3	6420	17.813235946674	0
3	6429	17.813235946674	0
3	6436	17.813235946674	0
3	6440	17.813235946674	0
3	6450	17.813235946674	0
3	6455	17.813235946674	0
3	6459	17.813235946674	0
3	6461	17.813235946674	0
3	6470	17.813235946674	0
3	6480	18.164950516515	0
3	6482	18.164950516515	0
3	6493	18.164950516515	0
3	6501	18.213666830242	0
3	6516	18.487300299315	0
3	6521	18.487300299315	0
3	6523	18.487300299315	0
3	6527	18.487300299315	0
3	6534	18.487300299315	0
3	6539	18.487300299315	0
3	6545	18.650943461677	0
3	6548	18.650943461677	0
3	6556	18.650943461677	0
3	6579	18.650943461677	0
3	6587	19.110987752355	0
3	6589	19.110987752355	0
3	6597	19.110987752355	0
3	6599	19.110987752355	0
3	6601	19.110987752355	0
3	6612	19.110987752355	0
3	6617	19.110987752355	0
3	6626	19.110987752355	0
3	6637	19.110987752355	0
3	6640	19.110987752355	0
3	6642	19.110987752355	0
3	6644	19.110987752355	0
3	6647	19.149216646618	0
3	6649	19.149216646618	0
3	6654	19.223124625917	0
3	6657	19.223124625917	0
3	6673	19.471666252658	0
3	6675	19.471666252658	0
3	6683	19.471666252658	0
3	6689	19.471666252658	0
3	6692	19.471666252658	0
3	6709	19.845267917523	0
3	6716	19.845267917523	0
3	6719	19.845267917523	0
4	23	0.995874504565	0.2
4	40	1.180801709972	0
4	42	1.180801709972	0
4	45	1.180801709972	0
4	58	1.180801709972	0
4	66	1.180801709972	0
4	68	1.180801709972	0
4	101	1.347840582725	0
4	104	1.347840582725	0
4	106	1.347840582725	0
4	109	1.347840582725	0
4	112	1.347840582725	0
4	126	1.347840582725	0
4	152	1.347840582725	0
4	154	1.347840582725	0
4	161	1.347840582725	0
4	169	1.347840582725	0
4	174	1.347840582725	0
4	178	1.347840582725	0
4	185	1.347840582725	0
4	192	1.347840582725	0
4	196	1.347840582725	0
4	200	1.347840582725	0
4	202	1.347840582725	0
4	241	1.384834697206	0
4	256	1.384834697206	0
4	265	1.46550963959	0
4	268	1.46550963959	0
4	273	1.46550963959	0
4	280	1.481002668286	0.2
4	291	1.557238950995	0
4	302	1.817588024354	0
4	310	1.817588024354	0
4	347	1.817588024354	0
4	358	1.817588024354	0
4	360	1.817588024354	0
4	365	1.817588024354	0
4	369	1.817588024354	0
4	377	1.817588024354	0
4	380	1.817588024354	0
4	382	1.817588024354	0
4	398	1.817588024354	0
4	408	1.961420495764	0
4	416	1.961420495764	0
4	419	1.961420495764	0
4	439	1.961420495764	0
4	446	1.961420495764	0
4	451	1.961420495764	0
4	456	1.961420495764	0
4	459	1.961420495764	0
4	488	2.141350407087	0
4	496	2.141350407087	0
4	525	2.154971232348	0
4	528	2.154971232348	0
4	532	2.154971232348	0
4	547	2.154971232348	0
4	559	2.154971232348	0
4	561	2.154971232348	0
4	564	2.154971232348	0
4	591	2.442383607351	0.2
4	627	2.523396013478	0
4	630	2.523396013478	0
4	642	2.642825802436	0.2
4	657	2.657529629464	0
4	661	2.657529629464	0
4	663	2.657529629464	0
4	665	2.657529629464	0
4	669	2.657529629464	0
4	677	2.657529629464	0
4	679	2.657529629464	0
4	685	2.657529629464	0
4	692	2.657529629464	0
4	702	2.708917813129	0.2
4	722	2.768335598487	0
4	730	2.768335598487	0
4	732	2.768335598487	0
4	739	2.768335598487	0
4	751	2.818446081304	0
4	754	2.818446081304	0
4	766	2.927318003826	0
4	789	2.927318003826	0
4	815	3.211692351818	0
4	818	3.211692351818	0
4	821	3.211692351818	0
4	823	3.211692351818	0
4	826	3.211692351818	0
4	831	3.211692351818	0
4	835	3.211692351818	0
4	838	3.211692351818	0
4	846	3.211692351818	0
4	855	3.211692351818	0
4	888	3.383275342669	0
4	895	3.383275342669	0
4	898	3.383275342669	0
4	912	3.383275342669	0
4	915	3.383275342669	0
4	927	3.383275342669	0
4	931	3.427164293237	0.2
4	967	3.674232632546	0
4	974	3.674232632546	0
4	981	3.674232632546	0
4	987	3.674232632546	0
4	992	3.674232632546	0
4	997	3.674232632546	0
4	1011	3.674232632546	0
4	1014	3.674232632546	0
4	1022	3.674232632546	0
4	1032	3.674232632546	0
4	1035	3.674232632546	0
4	1037	3.674232632546	0
4	1039	3.674232632546	0
4	1047	3.674232632546	0
4	1059	3.674232632546	0
4	1064	3.674232632546	0
4	1069	3.674232632546	0
4	1083	3.674232632546	0
4	1086	3.674232632546	0
4	1093	3.674232632546	0
4	1098	3.674232632546	0
4	1106	3.674232632546	0
4	1110	3.674232632546	0
4	1117	3.674232632546	0
4	1121	3.674232632546	0
4	1126	3.674232632546	0
4	1129	3.674232632546	0
4	1138	3.674232632546	0
4	1157	3.674232632546	0
4	1161	3.674232632546	0
4	1170	3.674232632546	0
4	1172	3.674232632546	0
4	1176	3.674232632546	0
4	1181	3.674232632546	0
4	1193	3.674232632546	0
4	1198	3.674232632546	0
4	1205	3.674232632546	0
4	1215	3.674232632546	0
4	1220	3.674232632546	0
4	1234	3.826244610676	0
4	1259	4.667755314564	0
4	1277	4.667755314564	0
4	1286	4.808565412338	0
4	1306	4.874456263527	0
4	1332	4.874456263527	0
4	1334	4.874456263527	0
4	1349	4.874456263527	0
4	1353	4.910749718198	0
4	1366	5.01872041603	0.2
4	1381	5.095532578328	0
4	1389	5.095532578328	0
4	1392	5.095532578328	0
4	1399	5.095532578328	0
4	1410	5.101277139018	0
4	1431	5.198686571124	0
4	1438	5.198686571124	0
4	1446	5.301792851877	0.2
4	1465	5.379373972777	0
4	1486	5.379373972777	0
4	1495	5.379373972777	0
4	1499	5.379373972777	0
4	1502	5.379373972777	0
4	1512	5.379373972777	0
4	1520	5.379373972777	0
4	1522	5.379373972777	0
4	1524	5.379373972777	0
4	1534	5.379373972777	0
4	1539	5.379373972777	0
4	1541	5.379373972777	0
4	1545	5.379373972777	0
4	1560	5.379373972777	0
4	1571	5.379373972777	0
4	1575	5.379373972777	0
4	1589	5.379373972777	0
4	1595	5.379373972777	0
4	1603	5.379373972777	0
4	1611	5.379373972777	0
4	1618	5.379373972777	0
4	1625	5.379373972777	0
4	1637	5.379373972777	0
4	1640	5.379373972777	0
4	1646	5.379373972777	0
4	1649	5.379373972777	0
4	1651	5.379373972777	0
4	1661	5.596645202917	0
4	1674	5.596645202917	0
4	1679	5.596645202917	0
4	1687	5.596645202917	0
4	1692	6.115445148932	0
4	1694	6.115445148932	0
4	1702	6.115445148932	0
4	1730	6.115445148932	0
4	1732	6.115445148932	0
4	1734	6.115445148932	0
4	1736	6.115445148932	0
4	1741	6.115445148932	0
4	1750	6.115445148932	0
4	1762	6.115445148932	0
4	1771	6.115445148932	0
4	1787	6.115445148932	0
4	1791	6.115445148932	0
4	1799	6.623715576572	0
4	1801	6.623715576572	0
4	1804	6.623715576572	0
4	1816	6.623715576572	0
4	1834	7.01474014061	0
4	1837	7.01474014061	0
4	1866	7.31397487712	0
4	1871	7.31397487712	0
4	1882	7.31397487712	0