version 2
run Small-0-20150813-14:50:47-21234
attr configname Small
attr datetime 20150813-14:50:47
attr experiment Small
attr inifile omnetpp.ini
attr iterationvars ""
attr iterationvars2 $repetition=0
attr measurement ""
attr network HTTPNet
attr processid 21234
attr repetition 0
attr replication #0
attr resultdir results
attr runnumber 0
attr seedset 0

vector 1  HTTPNet.Students[0]  endToEndDelay:vector  ETV
attr interpolationmode  none
attr title  "end-to-end delay of arrived packets, vector"
attr unit  s
vector 2  HTTPNet.Students[1]  endToEndDelay:vector  ETV
attr interpolationmode  none
attr title  "end-to-end delay of arrived packets, vector"
attr unit  s
vector 3  HTTPNet.Students[2]  endToEndDelay:vector  ETV
attr interpolationmode  none
attr title  "end-to-end delay of arrived packets, vector"
attr unit  s
vector 4  HTTPNet.Students[3]  endToEndDelay:vector  ETV
attr interpolationmode  none
attr title  "end-to-end delay of arrived packets, vector"
attr unit  s
vector 5  HTTPNet.Students[4]  endToEndDelay:vector  ETV
attr interpolationmode  none
attr title  "end-to-end delay of arrived packets, vector"
attr unit  s
vector 0  HTTPNet.Presenter  endToEndDelay:vector  ETV
attr interpolationmode  none
attr title  "end-to-end delay of arrived packets, vector"
attr unit  s
0	16	1.095874504565	0.3
0	52	1.883075644546	0.3
0	159	2.927688152854	0.3
0	167	3.03532326101	0.3
0	233	4.093149674362	0.3
0	278	5.11180840438	0.3
0	312	6.076261969873	0.3
0	339	6.463392062022	0.3
0	392	7.028002563142	0.3
0	406	7.205328138287	0.3
0	452	7.91524606551	0.3
0	509	9.116216972051	0.3
0	559	10.894360308885	0.3
0	632	12.542436482045	0.3
0	674	13.425317027002	0.3
0	688	13.641413243596	0.3
0	739	14.603425170186	0.3
0	784	15.896573028981	0.3
0	853	17.407034630205	0.3
0	900	18.998590752998	0.3
0	916	19.365295906792	0.3
0	1073	22.559057779474	0.3
0	1103	23.369550926656	0.3
0	1111	23.474947056568	0.3
0	1150	23.957522271728	0.3
0	1216	24.854575285833	0.3
0	1251	26.094273366449	0.3
0	1287	27.208884369448	0.3
0	1303	28.097413081773	0.3
0	1327	28.872026818129	0.3
0	1372	29.848318841097	0.3
0	1380	30.023229101192	0.3
0	1435	30.890984244131	0.3
0	1606	34.404963067081	0.3
0	1750	36.826299713524	0.3
0	1772	37.666133214909	0.3
0	1834	38.8475386135	0.3
0	1847	39.020876134727	0.3
0	1874	39.439635486982	0.3
0	1921	40.454262241246	0.3
0	2002	41.6389483919	0.3
0	2032	42.241759299904	0.3
1	9	0.995874504565	0.2
1	45	1.783075644546	0.2
1	126	2.827688152854	0.2
1	160	2.93532326101	0.2
1	226	3.993149674362	0.2
1	271	5.01180840438	0.2
1	305	5.976261969873	0.2
1	332	6.363392062022	0.2
1	362	6.928002563142	0.2
1	393	7.105328138287	0.2
1	445	7.81524606551	0.2
1	502	9.016216972051	0.2
1	548	10.794360308885	0.2
1	625	12.442436482045	0.2
1	648	13.325317027002	0.2
1	681	13.541413243596	0.2
1	724	14.503425170186	0.2
1	777	15.796573028981	0.2
1	846	17.307034630205	0.2
1	893	18.898590752998	0.2
1	909	19.265295906792	0.2
1	1066	22.459057779474	0.2
1	1095	23.269550926656	0.2
1	1104	23.374947056568	0.2
1	1129	23.857522271728	0.2
1	1183	24.754575285833	0.2
1	1244	25.994273366449	0.2
1	1280	27.108884369448	0.2
1	1296	27.997413081773	0.2
1	1320	28.772026818129	0.2
1	1364	29.748318841097	0.2
1	1373	29.923229101192	0.2
1	1428	30.790984244131	0.2
1	1599	34.304963067081	0.2
1	1743	36.726299713524	0.2
1	1765	37.566133214909	0.2
1	1826	38.7475386135	0.2
1	1835	38.920876134727	0.2
1	1867	39.339635486982	0.2
1	1914	40.354262241246	0.2
1	1995	41.5389483919	0.2
1	2025	42.141759299904	0.2
2	10	0.995874504565	0.2
2	24	1.347840582725	0
2	35	1.384834697206	0
2	46	1.783075644546	0.2
2	75	1.883896137071	0
2	81	2.359004219582	0
2	102	2.60220895375	0
2	120	2.789406318112	0
2	124	2.813350222315	0
2	127	2.827688152854	0.2
2	157	2.927318003826	0
2	161	2.93532326101	0.2
2	194	3.05327663625	0
2	197	3.083561828469	0
2	202	3.347733516544	0
2	213	3.544838414112	0
2	216	3.55189822485	0
2	227	3.993149674362	0.2
2	236	4.121224002753	0
2	248	4.3199173858	0
2	255	4.554929616246	0
2	261	4.565127632228	0
2	272	5.01180840438	0.2
2	283	5.214486477294	0
2	295	5.707929289171	0
2	306	5.976261969873	0.2
2	329	6.16717805074	0
2	333	6.363392062022	0.2
2	345	6.547870894281	0
2	363	6.928002563142	0.2
2	389	6.947498588641	0
2	394	7.105328138287	0.2
2	404	7.145774153063	0
2	421	7.453484350464	0
2	443	7.75717529122	0
2	446	7.81524606551	0.2
2	457	8.154464928313	0
2	489	8.426782181648	0
2	492	8.463513001037	0
2	503	9.016216972051	0.2
2	513	9.438149036102	0
2	518	9.570129039778	0
2	521	9.794765893762	0
2	528	9.821103433622	0
2	538	9.878150692881	0
2	549	10.794360308885	0.2
2	557	10.83543360127	0
2	573	10.925405475447	0
2	581	11.411704145676	0
2	585	11.78986542307	0
2	590	11.859897038536	0
2	598	12.126760300475	0
2	617	12.273188944093	0
2	623	12.372326960133	0
2	626	12.442436482045	0.2
2	638	12.897453531972	0
2	649	13.325317027002	0.2
2	672	13.343471833816	0
2	679	13.483148789176	0
2	682	13.541413243596	0.2
2	692	13.98327555187	0
2	704	14.01354365207	0
2	717	14.390648997022	0
2	722	14.407888872334	0
2	725	14.503425170186	0.2
2	737	14.548700693257	0
2	745	15.07587462321	0
2	760	15.397542505709	0
2	767	15.519727433082	0
2	778	15.796573028981	0.2
2	802	16.221887112934	0
2	811	16.317701140097	0
2	836	16.845627973341	0
2	847	17.307034630205	0.2
2	883	18.033394208775	0
2	894	18.898590752998	0.2
2	910	19.265295906792	0.2
2	924	19.426955159545	0
2	927	19.904725453208	0
2	942	20.085570637926	0
2	949	20.110560026109	0
2	996	20.216312948649	0
2	1009	20.36048786848	0
2	1027	20.806548160341	0
2	1032	21.49482361672	0
2	1037	21.777670703096	0
2	1058	22.427946285824	0
2	1064	22.428167986156	0
2	1067	22.459057779474	0.2
2	1078	22.83077667393	0
2	1096	23.269550926656	0.2
2	1105	23.374947056568	0.2
2	1119	23.641380720332	0
2	1130	23.857522271728	0.2
2	1137	23.878507846553	0
2	1148	23.935619758682	0
2	1155	24.13836943514	0
2	1158	24.242626002592	0
2	1173	24.280187800236	0
2	1184	24.754575285833	0.2
2	1214	24.851215518392	0
2	1222	25.140324916563	0
2	1225	25.195191275847	0
2	1242	25.988002525965	0
2	1245	25.994273366449	0.2
2	1265	26.977685016278	0
2	1278	27.027595906466	0
2	1281	27.108884369448	0.2
2	1297	27.997413081773	0.2
2	1318	28.689760312334	0
2	1321	28.772026818129	0.2
2	1334	29.374580732512	0
2	1342	29.402575153883	0
2	1347	29.468466005072	0
2	1365	29.748318841097	0.2
2	1374	29.923229101192	0.2
2	1384	30.422486082931	0
2	1410	30.447815035187	0
2	1425	30.68432311443	0
2	1429	30.790984244131	0.2
2	1441	31.789204795036	0
2	1451	31.913658261667	0
2	1465	31.959790983067	0
2	1469	32.319691494121	0
2	1482	32.344173564662	0
2	1493	32.601785215636	0
2	1506	32.898382867547	0
2	1538	33.254881674206	0
2	1572	33.564914717508	0
2	1575	33.977850488546	0
2	1589	34.027763390272	0
2	1600	34.304963067081	0.2
2	1609	34.513634922895	0
2	1613	34.835093593608	0
2	1638	35.190236999948	0
2	1646	35.440722954279	0
2	1661	35.53304997212	0
2	1670	35.652901111763	0
2	1680	35.794303803779	0
2	1691	35.796380272688	0
2	1696	36.186769782361	0
2	1721	36.317145560453	0
2	1740	36.608106515606	0
2	1744	36.726299713524	0.2
2	1752	37.032759259091	0
2	1755	37.093981009617	0
2	1766	37.566133214909	0.2
2	1796	37.757242336982	0
2	1805	38.087386137367	0
2	1809	38.088205317305	0
2	1827	38.7475386135	0.2
2	1836	38.920876134727	0.2
2	1845	38.985276127602	0
2	1864	39.169649809828	0
2	1868	39.339635486982	0.2
2	1877	39.58916260234	0
2	1884	39.874000238534	0
2	1895	39.967822458303	0
2	1911	40.158336432604	0
2	1915	40.354262241246	0.2
2	1928	40.758575642848	0
2	1940	41.028219292464	0
2	1979	41.168922936221	0
2	1993	41.467011401849	0
2	1996	41.5389483919	0.2
2	2015	41.676129672618	0
2	2026	42.141759299904	0.2
2	2036	42.42418613243	0
2	2044	42.496748203198	0
2	2048	42.609726709137	0
3	11	0.995874504565	0.2
3	19	1.347840582725	0
3	21	1.347840582725	0
3	23	1.347840582725	0
3	25	1.347840582725	0
3	30	1.384834697206	0
3	32	1.384834697206	0
3	34	1.384834697206	0
3	47	1.783075644546	0.2
3	54	1.883896137071	0
3	57	1.883896137071	0
3	59	1.883896137071	0
3	61	1.883896137071	0
3	63	1.883896137071	0
3	65	1.883896137071	0
3	67	1.883896137071	0
3	69	1.883896137071	0
3	72	1.883896137071	0
3	74	1.883896137071	0
3	76	1.883896137071	0
3	78	2.359004219582	0
3	80	2.359004219582	0
3	84	2.60220895375	0
3	87	2.60220895375	0
3	89	2.60220895375	0
3	91	2.60220895375	0
3	95	2.60220895375	0
3	98	2.60220895375	0
3	101	2.60220895375	0
3	121	2.789406318112	0
3	123	2.813350222315	0
3	128	2.827688152854	0.2
3	135	2.927318003826	0
3	138	2.927318003826	0
3	140	2.927318003826	0
3	142	2.927318003826	0
3	144	2.927318003826	0
3	147	2.927318003826	0
3	150	2.927318003826	0
3	152	2.927318003826	0
3	156	2.927318003826	0
3	162	2.93532326101	0.2
3	170	3.05327663625	0
3	175	3.05327663625	0
3	181	3.05327663625	0
3	185	3.05327663625	0
3	188	3.05327663625	0
3	191	3.05327663625	0
3	193	3.05327663625	0
3	201	3.347733516544	0
3	203	3.347733516544	0
3	206	3.544838414112	0
3	212	3.544838414112	0
3	214	3.544838414112	0
3	228	3.993149674362	0.2
3	235	4.121224002753	0
3	240	4.3199173858	0
3	242	4.3199173858	0
3	245	4.3199173858	0
3	247	4.3199173858	0
3	249	4.3199173858	0
3	254	4.554929616246	0
3	260	4.565127632228	0
3	262	4.565127632228	0
3	273	5.01180840438	0.2
3	280	5.214486477294	0
3	282	5.214486477294	0
3	284	5.214486477294	0
3	287	5.707929289171	0
3	290	5.707929289171	0
3	292	5.707929289171	0
3	294	5.707929289171	0
3	307	5.976261969873	0.2
3	323	6.16717805074	0
3	328	6.16717805074	0
3	330	6.16717805074	0
3	334	6.363392062022	0.2
3	341	6.547870894281	0
3	344	6.547870894281	0
3	346	6.547870894281	0
3	364	6.928002563142	0.2
3	371	6.947498588641	0
3	373	6.947498588641	0
3	375	6.947498588641	0
3	377	6.947498588641	0
3	382	6.947498588641	0
3	386	6.947498588641	0
3	388	6.947498588641	0
3	395	7.105328138287	0.2
3	403	7.145774153063	0
3	405	7.145774153063	0
3	408	7.453484350464	0
3	414	7.453484350464	0
3	416	7.453484350464	0
3	418	7.453484350464	0
3	420	7.453484350464	0
3	422	7.453484350464	0
3	432	7.75717529122	0
3	434	7.75717529122	0
3	437	7.75717529122	0
3	439	7.75717529122	0
3	442	7.75717529122	0
3	447	7.81524606551	0.2
3	456	8.154464928313	0
3	461	8.426782181648	0
3	464	8.426782181648	0
3	467	8.426782181648	0
3	469	8.426782181648	0
3	473	8.426782181648	0
3	476	8.426782181648	0
3	478	8.426782181648	0
3	480	8.426782181648	0
3	482	8.426782181648	0
3	484	8.426782181648	0
3	486	8.426782181648	0
3	488	8.426782181648	0
3	490	8.426782181648	0
3	504	9.016216972051	0.2
3	512	9.438149036102	0
3	517	9.570129039778	0
3	519	9.570129039778	0
3	524	9.821103433622	0
3	527	9.821103433622	0
3	531	9.878150692881	0
3	533	9.878150692881	0
3	535	9.878150692881	0
3	537	9.878150692881	0
3	550	10.794360308885	0.2
3	556	10.83543360127	0
3	562	10.925405475447	0
3	565	10.925405475447	0
3	570	10.925405475447	0
3	572	10.925405475447	0
3	577	11.411704145676	0
3	580	11.411704145676	0
3	584	11.78986542307	0
3	589	11.859897038536	0
3	595	12.126760300475	0
3	597	12.126760300475	0
3	599	12.126760300475	0
3	608	12.273188944093	0
3	610	12.273188944093	0
3	613	12.273188944093	0
3	616	12.273188944093	0
3	618	12.273188944093	0
3	622	12.372326960133	0
3	624	12.372326960133	0
3	627	12.442436482045	0.2
3	634	12.897453531972	0
3	637	12.897453531972	0
3	650	13.325317027002	0.2
3	664	13.343471833816	0
3	667	13.343471833816	0
3	669	13.343471833816	0
3	671	13.343471833816	0
3	673	13.343471833816	0
3	678	13.483148789176	0
3	683	13.541413243596	0.2
3	691	13.98327555187	0
3	693	13.98327555187	0
3	695	14.01354365207	0
3	698	14.01354365207	0
3	700	14.01354365207	0
3	703	14.01354365207	0
3	716	14.390648997022	0
3	721	14.407888872334	0
3	723	14.407888872334	0
3	726	14.503425170186	0.2
3	736	14.548700693257	0
3	738	14.548700693257	0
3	742	15.07587462321	0
3	744	15.07587462321	0
3	748	15.397542505709	0
3	750	15.397542505709	0
3	753	15.397542505709	0
3	755	15.397542505709	0
3	757	15.397542505709	0
3	759	15.397542505709	0
3	764	15.519727433082	0
3	766	15.519727433082	0
3	779	15.796573028981	0.2
3	786	16.221887112934	0
3	791	16.221887112934	0
3	794	16.221887112934	0
3	797	16.221887112934	0
3	801	16.221887112934	0
3	805	16.317701140097	0
3	808	16.317701140097	0
3	810	16.317701140097	0
3	826	16.845627973341	0
3	831	16.845627973341	0
3	833	16.845627973341	0
3	835	16.845627973341	0
3	848	17.307034630205	0.2
3	855	18.033394208775	0
3	858	18.033394208775	0
3	865	18.033394208775	0
3	867	18.033394208775	0
3	870	18.033394208775	0
3	874	18.033394208775	0
3	877	18.033394208775	0
3	882	18.033394208775	0
3	895	18.898590752998	0.2
3	911	19.265295906792	0.2
3	918	19.426955159545	0
3	921	19.426955159545	0
3	923	19.426955159545	0
3	928	19.904725453208	0
3	931	20.085570637926	0
3	934	20.085570637926	0
3	936	20.085570637926	0
3	938	20.085570637926	0
3	941	20.085570637926	0
3	946	20.110560026109	0
3	948	20.110560026109	0
3	953	20.216312948649	0
3	956	20.216312948649	0
3	959	20.216312948649	0
3	961	20.216312948649	0
3	963	20.216312948649	0
3	967	20.216312948649	0
3	970	20.216312948649	0
3	976	20.216312948649	0
3	978	20.216312948649	0
3	983	20.216312948649	0
3	987	20.216312948649	0
3	989	20.216312948649	0
3	991	20.216312948649	0
3	993	20.216312948649	0
3	995	20.216312948649	0
3	1000	20.36048786848	0
3	1006	20.36048786848	0
3	1008	20.36048786848	0
3	1013	20.806548160341	0
3	1017	20.806548160341	0
3	1019	20.806548160341	0
3	1023	20.806548160341	0
3	1026	20.806548160341	0
3	1031	21.49482361672	0
3	1033	21.49482361672	0
3	1036	21.777670703096	0
3	1054	22.427946285824	0
3	1057	22.427946285824	0
3	1063	22.428167986156	0
3	1068	22.459057779474	0.2
3	1077	22.83077667393	0
3	1097	23.269550926656	0.2
3	1106	23.374947056568	0.2
3	1113	23.641380720332	0
3	1115	23.641380720332	0
3	1118	23.641380720332	0
3	1131	23.857522271728	0.2
3	1141	23.935619758682	0
3	1143	23.935619758682	0
3	1145	23.935619758682	0
3	1147	23.935619758682	0
3	1154	24.13836943514	0
3	1170	24.280187800236	0
3	1172	24.280187800236	0
3	1185	24.754575285833	0.2
3	1192	24.851215518392	0
3	1195	24.851215518392	0
3	1201	24.851215518392	0
3	1206	24.851215518392	0
3	1211	24.851215518392	0
3	1213	24.851215518392	0
3	1218	25.140324916563	0
3	1221	25.140324916563	0
3	1237	25.988002525965	0
3	1239	25.988002525965	0
3	1241	25.988002525965	0
3	1243	25.988002525965	0
3	1246	25.994273366449	0.2
3	1262	26.977685016278	0
3	1264	26.977685016278	0
3	1266	26.977685016278	0
3	1269	27.027595906466	0
3	1271	27.027595906466	0
3	1273	27.027595906466	0
3	1277	27.027595906466	0
3	1279	27.027595906466	0
3	1282	27.108884369448	0.2
3	1298	27.997413081773	0.2
3	1313	28.689760312334	0
3	1315	28.689760312334	0
3	1317	28.689760312334	0
3	1322	28.772026818129	0.2
3	1329	29.374580732512	0
3	1331	29.374580732512	0
3	1333	29.374580732512	0
3	1337	29.402575153883	0
3	1339	29.402575153883	0
3	1341	29.402575153883	0
3	1346	29.468466005072	0
3	1366	29.748318841097	0.2
3	1375	29.923229101192	0.2
3	1383	30.422486082931	0
3	1385	30.422486082931	0
3	1389	30.447815035187	0
3	1394	30.447815035187	0
3	1401	30.447815035187	0
3	1403	30.447815035187	0
3	1405	30.447815035187	0
3	1407	30.447815035187	0
3	1409	30.447815035187	0
3	1420	30.68432311443	0
3	1422	30.68432311443	0
3	1424	30.68432311443	0
3	1430	30.790984244131	0.2
3	1437	31.789204795036	0
3	1440	31.789204795036	0
3	1446	31.913658261667	0
3	1450	31.913658261667	0
3	1452	31.913658261667	0
3	1455	31.959790983067	0
3	1458	31.959790983067	0
3	1462	31.959790983067	0
3	1464	31.959790983067	0
3	1468	32.319691494121	0
3	1470	32.319691494121	0
3	1472	32.344173564662	0
3	1475	32.344173564662	0
3	1477	32.344173564662	0
3	1479	32.344173564662	0
3	1481	32.344173564662	0
3	1488	32.601785215636	0
3	1490	32.601785215636	0
3	1492	32.601785215636	0
3	1498	32.898382867547	0
3	1503	32.898382867547	0
3	1505	32.898382867547	0
3	1510	33.254881674206	0
3	1512	33.254881674206	0
3	1515	33.254881674206	0
3	1517	33.254881674206	0
3	1520	33.254881674206	0
3	1522	33.254881674206	0
3	1528	33.254881674206	0
3	1531	33.254881674206	0
3	1533	33.254881674206	0
3	1535	33.254881674206	0
3	1537	33.254881674206	0
3	1543	33.564914717508	0
3	1545	33.564914717508	0
3	1547	33.564914717508	0
3	1550	33.564914717508	0
3	1553	33.564914717508	0
3	1558	33.564914717508	0
3	1561	33.564914717508	0
3	1563	33.564914717508	0
3	1566	33.564914717508	0
3	1568	33.564914717508	0
3	1571	33.564914717508	0
3	1573	33.564914717508	0
3	1583	34.027763390272	0
3	1585	34.027763390272	0
3	1588	34.027763390272	0
3	1601	34.304963067081	0.2
3	1608	34.513634922895	0
3	1612	34.835093593608	0
3	1616	35.190236999948	0
3	1619	35.190236999948	0
3	1621	35.190236999948	0
3	1626	35.190236999948	0
3	1633	35.190236999948	0
3	1635	35.190236999948	0
3	1637	35.190236999948	0
3	1641	35.440722954279	0
3	1645	35.440722954279	0
3	1649	35.53304997212	0
3	1651	35.53304997212	0
3	1654	35.53304997212	0
3	1656	35.53304997212	0
3	1660	35.53304997212	0
3	1669	35.652901111763	0
3	1674	35.794303803779	0
3	1679	35.794303803779	0
3	1683	35.796380272688	0
3	1685	35.796380272688	0
3	1690	35.796380272688	0
3	1695	36.186769782361	0
3	1702	36.317145560453	0
3	1704	36.317145560453	0
3	1706	36.317145560453	0
3	1710	36.317145560453	0
3	1713	36.317145560453	0
3	1716	36.317145560453	0
3	1718	36.317145560453	0
3	1720	36.317145560453	0
3	1732	36.608106515606	0
3	1739	36.608106515606	0
3	1745	36.726299713524	0.2
3	1767	37.566133214909	0.2
3	1775	37.757242336982	0
3	1779	37.757242336982	0
3	1781	37.757242336982	0
3	1783	37.757242336982	0
3	1786	37.757242336982	0
3	1788	37.757242336982	0
3	1792	37.757242336982	0
3	1795	37.757242336982	0
3	1799	38.087386137367	0
3	1804	38.087386137367	0
3	1806	38.087386137367	0
3	1808	38.088205317305	0
3	1810	38.088205317305	0
3	1828	38.7475386135	0.2
3	1837	38.920876134727	0.2
3	1844	38.985276127602	0
3	1857	39.169649809828	0
3	1859	39.169649809828	0
3	1861	39.169649809828	0
3	1863	39.169649809828	0
3	1865	39.169649809828	0
3	1869	39.339635486982	0.2
3	1876	39.58916260234	0
3	1880	39.874000238534	0
3	1883	39.874000238534	0
3	1890	39.967822458303	0
3	1892	39.967822458303	0
3	1894	39.967822458303	0
3	1907	40.158336432604	0
3	1910	40.158336432604	0
3	1916	40.354262241246	0.2
3	1924	40.758575642848	0
3	1927	40.758575642848	0
3	1933	41.028219292464	0
3	1935	41.028219292464	0
3	1937	41.028219292464	0
3	1939	41.028219292464	0
3	1941	41.028219292464	0
3	1945	41.168922936221	0
3	1948	41.168922936221	0
3	1950	41.168922936221	0
3	1953	41.168922936221	0
3	1956	41.168922936221	0
3	1958	41.168922936221	0
3	1960	41.168922936221	0
3	1963	41.168922936221	0
3	1965	41.168922936221	0
3	1968	41.168922936221	0
3	1970	41.168922936221	0
3	1972	41.168922936221	0
3	1978	41.168922936221	0
3	1992	41.467011401849	0
3	1994	41.467011401849	0
3	1997	41.5389483919	0.2
3	2006	41.676129672618	0
3	2008	41.676129672618	0
3	2014	41.676129672618	0
3	2027	42.141759299904	0.2
3	2035	42.42418613243	0
3	2040	42.496748203198	0
3	2043	42.496748203198	0
3	2045	42.496748203198	0
3	2047	42.609726709137	0
3	2049	42.609726709137	0
4	12	0.995874504565	0.2
4	18	1.347840582725	0
4	28	1.384834697206	0
4	31	1.384834697206	0
4	33	1.384834697206	0
4	36	1.384834697206	0
4	48	1.783075644546	0.2
4	55	1.883896137071	0
4	60	1.883896137071	0
4	64	1.883896137071	0
4	66	1.883896137071	0
4	71	1.883896137071	0
4	82	2.359004219582	0
4	86	2.60220895375	0
4	88	2.60220895375	0
4	90	2.60220895375	0
4	93	2.60220895375	0
4	97	2.60220895375	0
4	99	2.60220895375	0
4	129	2.827688152854	0.2
4	137	2.927318003826	0
4	139	2.927318003826	0
4	141	2.927318003826	0
4	143	2.927318003826	0
4	145	2.927318003826	0
4	148	2.927318003826	0
4	153	2.927318003826	0
4	155	2.927318003826	0
4	158	2.927318003826	0
4	163	2.93532326101	0.2
4	169	3.05327663625	0
4	172	3.05327663625	0
4	174	3.05327663625	0
4	177	3.05327663625	0
4	179	3.05327663625	0
4	182	3.05327663625	0
4	184	3.05327663625	0
4	187	3.05327663625	0
4	190	3.05327663625	0
4	200	3.347733516544	0
4	205	3.544838414112	0
4	207	3.544838414112	0
4	209	3.544838414112	0
4	211	3.544838414112	0
4	229	3.993149674362	0.2
4	237	4.121224002753	0
4	241	4.3199173858	0
4	244	4.3199173858	0
4	246	4.3199173858	0
4	251	4.554929616246	0
4	253	4.554929616246	0
4	256	4.554929616246	0
4	259	4.565127632228	0
4	274	5.01180840438	0.2
4	281	5.214486477294	0
4	286	5.707929289171	0
4	289	5.707929289171	0
4	291	5.707929289171	0
4	296	5.707929289171	0
4	308	5.976261969873	0.2
4	322	6.16717805074	0
4	325	6.16717805074	0
4	327	6.16717805074	0
4	335	6.363392062022	0.2
4	343	6.547870894281	0
4	365	6.928002563142	0.2
4	370	6.947498588641	0
4	374	6.947498588641	0
4	376	6.947498588641	0
4	378	6.947498588641	0
4	380	6.947498588641	0
4	383	6.947498588641	0
4	385	6.947498588641	0
4	387	6.947498588641	0
4	396	7.105328138287	0.2
4	402	7.145774153063	0
4	410	7.453484350464	0
4	412	7.453484350464	0
4	417	7.453484350464	0
4	419	7.453484350464	0
4	433	7.75717529122	0
4	436	7.75717529122	0
4	438	7.75717529122	0
4	441	7.75717529122	0
4	444	7.75717529122	0
4	448	7.81524606551	0.2
4	455	8.154464928313	0
4	458	8.154464928313	0
4	460	8.426782181648	0
4	463	8.426782181648	0
4	466	8.426782181648	0
4	468	8.426782181648	0
4	470	8.426782181648	0
4	472	8.426782181648	0
4	474	8.426782181648	0
4	477	8.426782181648	0
4	479	8.426782181648	0
4	493	8.463513001037	0
4	505	9.016216972051	0.2
4	514	9.438149036102	0
4	522	9.794765893762	0
4	526	9.821103433622	0
4	534	9.878150692881	0
4	536	9.878150692881	0
4	539	9.878150692881	0
4	551	10.794360308885	0.2
4	558	10.83543360127	0
4	564	10.925405475447	0
4	567	10.925405475447	0
4	569	10.925405475447	0
4	576	11.411704145676	0
4	579	11.411704145676	0
4	588	11.859897038536	0
4	591	11.859897038536	0
4	593	12.126760300475	0
4	596	12.126760300475	0
4	609	12.273188944093	0
4	612	12.273188944093	0
4	614	12.273188944093	0
4	628	12.442436482045	0.2
4	636	12.897453531972	0
4	639	12.897453531972	0
4	651	13.325317027002	0.2
4	663	13.343471833816	0
4	666	13.343471833816	0
4	668	13.343471833816	0
4	677	13.483148789176	0
4	684	13.541413243596	0.2
4	697	14.01354365207	0
4	702	14.01354365207	0
4	715	14.390648997022	0
4	727	14.503425170186	0.2
4	733	14.548700693257	0
4	735	14.548700693257	0
4	741	15.07587462321	0
4	746	15.07587462321	0
4	749	15.397542505709	0
4	751	15.397542505709	0
4	756	15.397542505709	0
4	761	15.397542505709	0
4	763	15.519727433082	0
4	765	15.519727433082	0
4	780	15.796573028981	0.2
4	788	16.221887112934	0
4	790	16.221887112934	0
4	793	16.221887112934	0
4	796	16.221887112934	0
4	798	16.221887112934	0
4	800	16.221887112934	0
4	803	16.221887112934	0
4	806	16.317701140097	0
4	809	16.317701140097	0
4	812	16.317701140097	0
4	815	16.845627973341	0
4	817	16.845627973341	0
4	819	16.845627973341	0
4	821	16.845627973341	0
4	823	16.845627973341	0
4	825	16.845627973341	0
4	828	16.845627973341	0
4	830	16.845627973341	0
4	832	16.845627973341	0
4	849	17.307034630205	0.2
4	857	18.033394208775	0
4	859	18.033394208775	0
4	861	18.033394208775	0
4	863	18.033394208775	0
4	866	18.033394208775	0
4	869	18.033394208775	0
4	872	18.033394208775	0
4	875	18.033394208775	0
4	879	18.033394208775	0
4	881	18.033394208775	0
4	884	18.033394208775	0
4	896	18.898590752998	0.2
4	912	19.265295906792	0.2
4	919	19.426955159545	0
4	925	19.426955159545	0
4	933	20.085570637926	0
4	940	20.085570637926	0
4	945	20.110560026109	0
4	947	20.110560026109	0
4	952	20.216312948649	0
4	954	20.216312948649	0
4	958	20.216312948649	0
4	960	20.216312948649	0
4	964	20.216312948649	0
4	966	20.216312948649	0
4	968	20.216312948649	0
4	972	20.216312948649	0
4	974	20.216312948649	0
4	977	20.216312948649	0
4	980	20.216312948649	0
4	982	20.216312948649	0
4	984	20.216312948649	0
4	986	20.216312948649	0
4	990	20.216312948649	0
4	994	20.216312948649	0
4	999	20.36048786848	0
4	1001	20.36048786848	0
4	1003	20.36048786848	0
4	1005	20.36048786848	0
4	1010	20.36048786848	0
4	1012	20.806548160341	0
4	1015	20.806548160341	0
4	1020	20.806548160341	0
4	1022	20.806548160341	0
4	1024	20.806548160341	0
4	1030	21.49482361672	0
4	1035	21.777670703096	0
4	1038	21.777670703096	0
4	1048	22.427946285824	0
4	1050	22.427946285824	0
4	1052	22.427946285824	0
4	1056	22.427946285824	0
4	1062	22.428167986156	0
4	1069	22.459057779474	0.2
4	1076	22.83077667393	0
4	1079	22.83077667393	0
4	1098	23.269550926656	0.2
4	1107	23.374947056568	0.2
4	1116	23.641380720332	0
4	1120	23.641380720332	0
4	1132	23.857522271728	0.2
4	1138	23.878507846553	0
4	1140	23.935619758682	0
4	1152	24.13836943514	0
4	1159	24.242626002592	0
4	1162	24.280187800236	0
4	1164	24.280187800236	0
4	1166	24.280187800236	0
4	1168	24.280187800236	0
4	1174	24.280187800236	0
4	1186	24.754575285833	0.2
4	1194	24.851215518392	0
4	1196	24.851215518392	0
4	1198	24.851215518392	0
4	1200	24.851215518392	0
4	1203	24.851215518392	0
4	1205	24.851215518392	0
4	1208	24.851215518392	0
4	1210	24.851215518392	0
4	1212	24.851215518392	0
4	1215	24.851215518392	0
4	1219	25.140324916563	0
4	1223	25.140324916563	0
4	1226	25.195191275847	0
4	1238	25.988002525965	0
4	1247	25.994273366449	0.2
4	1261	26.977685016278	0
4	1263	26.977685016278	0
4	1272	27.027595906466	0
4	1274	27.027595906466	0
4	1276	27.027595906466	0
4	1283	27.108884369448	0.2
4	1299	27.997413081773	0.2
4	1314	28.689760312334	0
4	1319	28.689760312334	0
4	1323	28.772026818129	0.2
4	1332	29.374580732512	0
4	1335	29.374580732512	0
4	1338	29.402575153883	0
4	1343	29.402575153883	0
4	1345	29.468466005072	0
4	1367	29.748318841097	0.2
4	1376	29.923229101192	0.2
4	1388	30.447815035187	0
4	1391	30.447815035187	0
4	1393	30.447815035187	0
4	1396	30.447815035187	0
4	1398	30.447815035187	0
4	1400	30.447815035187	0
4	1402	30.447815035187	0
4	1404	30.447815035187	0
4	1406	30.447815035187	0
4	1408	30.447815035187	0
4	1411	30.447815035187	0
4	1421	30.68432311443	0
4	1423	30.68432311443	0
4	1431	30.790984244131	0.2
4	1439	31.789204795036	0
4	1445	31.913658261667	0
4	1447	31.913658261667	0
4	1449	31.913658261667	0
4	1454	31.959790983067	0
4	1457	31.959790983067	0
4	1459	31.959790983067	0
4	1461	31.959790983067	0
4	1466	31.959790983067	0
4	1474	32.344173564662	0
4	1478	32.344173564662	0
4	1480	32.344173564662	0
4	1485	32.601785215636	0
4	1487	32.601785215636	0
4	1496	32.898382867547	0
4	1500	32.898382867547	0
4	1502	32.898382867547	0
4	1504	32.898382867547	0
4	1507	32.898382867547	0
4	1509	33.254881674206	0
4	1511	33.254881674206	0
4	1514	33.254881674206	0
4	1516	33.254881674206	0
4	1519	33.254881674206	0
4	1521	33.254881674206	0
4	1523	33.254881674206	0
4	1525	33.254881674206	0
4	1527	33.254881674206	0
4	1530	33.254881674206	0
4	1532	33.254881674206	0
4	1534	33.254881674206	0
4	1536	33.254881674206	0
4	1541	33.564914717508	0
4	1544	33.564914717508	0
4	1546	33.564914717508	0
4	1549	33.564914717508	0
4	1551	33.564914717508	0
4	1555	33.564914717508	0
4	1557	33.564914717508	0
4	1560	33.564914717508	0
4	1565	33.564914717508	0
4	1567	33.564914717508	0
4	1569	33.564914717508	0
4	1578	34.027763390272	0
4	1580	34.027763390272	0
4	1582	34.027763390272	0
4	1584	34.027763390272	0
4	1587	34.027763390272	0
4	1590	34.027763390272	0
4	1602	34.304963067081	0.2
4	1610	34.513634922895	0
4	1617	35.190236999948	0
4	1620	35.190236999948	0
4	1623	35.190236999948	0
4	1625	35.190236999948	0
4	1627	35.190236999948	0
4	1629	35.190236999948	0
4	1631	35.190236999948	0
4	1634	35.190236999948	0
4	1636	35.190236999948	0
4	1642	35.440722954279	0
4	1644	35.440722954279	0
4	1650	35.53304997212	0
4	1652	35.53304997212	0
4	1655	35.53304997212	0
4	1658	35.53304997212	0
4	1662	35.53304997212	0
4	1665	35.652901111763	0
4	1667	35.652901111763	0
4	1671	35.652901111763	0
4	1675	35.794303803779	0
4	1677	35.794303803779	0
4	1681	35.794303803779	0
4	1684	35.796380272688	0
4	1687	35.796380272688	0
4	1689	35.796380272688	0
4	1692	35.796380272688	0
4	1694	36.186769782361	0
4	1697	36.186769782361	0
4	1699	36.317145560453	0
4	1701	36.317145560453	0
4	1708	36.317145560453	0
4	1712	36.317145560453	0
4	1715	36.317145560453	0
4	1719	36.317145560453	0
4	1731	36.608106515606	0
4	1734	36.608106515606	0
4	1736	36.608106515606	0
4	1738	36.608106515606	0
4	1741	36.608106515606	0
4	1746	36.726299713524	0.2
4	1753	37.032759259091	0
4	1756	37.093981009617	0
4	1768	37.566133214909	0.2
4	1776	37.757242336982	0
4	1778	37.757242336982	0
4	1780	37.757242336982	0
4	1784	37.757242336982	0
4	1789	37.757242336982	0
4	1791	37.757242336982	0
4	1794	37.757242336982	0
4	1797	37.757242336982	0
4	1801	38.087386137367	0
4	1803	38.087386137367	0
4	1829	38.7475386135	0.2
4	1838	38.920876134727	0.2
4	1843	38.985276127602	0
4	1846	38.985276127602	0
4	1856	39.169649809828	0
4	1862	39.169649809828	0
4	1870	39.339635486982	0.2
4	1881	39.874000238534	0
4	1885	39.874000238534	0
4	1887	39.967822458303	0
4	1889	39.967822458303	0
4	1891	39.967822458303	0
4	1905	40.158336432604	0
4	1909	40.158336432604	0
4	1912	40.158336432604	0
4	1917	40.354262241246	0.2
4	1923	40.758575642848	0
4	1925	40.758575642848	0
4	1929	40.758575642848	0
4	1932	41.028219292464	0
4	1934	41.028219292464	0
4	1944	41.168922936221	0
4	1947	41.168922936221	0
4	1952	41.168922936221	0
4	1954	41.168922936221	0
4	1957	41.168922936221	0
4	1959	41.168922936221	0
4	1962	41.168922936221	0
4	1967	41.168922936221	0
4	1969	41.168922936221	0
4	1971	41.168922936221	0
4	1973	41.168922936221	0
4	1975	41.168922936221	0
4	1977	41.168922936221	0
4	1991	41.467011401849	0
4	1998	41.5389483919	0.2
4	2004	41.676129672618	0
4	2007	41.676129672618	0
4	2010	41.676129672618	0
4	2012	41.676129672618	0
4	2028	42.141759299904	0.2
4	2039	42.496748203198	0
4	2041	42.496748203198	0
5	13	0.995874504565	0.2
5	20	1.347840582725	0
5	22	1.347840582725	0
5	27	1.384834697206	0
5	29	1.384834697206	0
5	49	1.783075644546	0.2
5	56	1.883896137071	0
5	58	1.883896137071	0
5	62	1.883896137071	0
5	68	1.883896137071	0
5	70	1.883896137071	0
5	73	1.883896137071	0
5	79	2.359004219582	0
5	85	2.60220895375	0
5	92	2.60220895375	0
5	94	2.60220895375	0
5	96	2.60220895375	0
5	100	2.60220895375	0
5	103	2.60220895375	0
5	125	2.813350222315	0
5	130	2.827688152854	0.2
5	136	2.927318003826	0
5	146	2.927318003826	0
5	149	2.927318003826	0
5	151	2.927318003826	0
5	154	2.927318003826	0
5	164	2.93532326101	0.2
5	171	3.05327663625	0
5	173	3.05327663625	0
5	176	3.05327663625	0
5	178	3.05327663625	0
5	180	3.05327663625	0
5	183	3.05327663625	0
5	186	3.05327663625	0
5	189	3.05327663625	0
5	192	3.05327663625	0
5	195	3.05327663625	0
5	198	3.083561828469	0
5	208	3.544838414112	0
5	210	3.544838414112	0